<UPF version="2.0.1">
  <PP_INFO>this fixture has no PP_HEADER element</PP_INFO>
</UPF>
